                         Program Version 5.0.0 -  RELEASE  -
|  1> ! pbe cc-pVDZ OPT
|  2> %scf maxiter 200 end
|  3> *xyz 0 1
|  4> C   0.0 0.0 0.762209
|  5> C   0.0 0.0 -0.762209
|  6> H   0.0 1.018957 1.157229
|  7> H   -0.882443 -0.509479 1.157229
|  8> H   0.882443 -0.509479 1.157229
|  9> H   0.0 -1.018957 -1.157229
| 10> H   -0.882443 0.509479 -1.157229
| 11> H   0.882443 0.509479 -1.157229
| 12> *
| 13>
| 14>                          ****END OF INPUT****
 Total Charge           Charge          ....    0
 Multiplicity           Mult            ....    1
 Number of Electrons    NEL             ....   18
FINAL SINGLE POINT ENERGY       -79.698450888968
FINAL SINGLE POINT ENERGY       -79.699509175597
FINAL SINGLE POINT ENERGY       -79.699520729435
FINAL SINGLE POINT ENERGY       -79.699526785921
                    ***********************HURRAY********************

CARTESIAN COORDINATES (ANGSTROEM)
---------------------------------
  C      0.000000   -0.000006    0.764702
  C     -0.000000    0.000006   -0.764702
  H      0.000000    1.031736    1.173314
  H     -0.893510   -0.515884    1.173354
  H      0.893510   -0.515884    1.173354
  H      0.000000   -1.031736   -1.173314
  H     -0.893510    0.515884   -1.173354
  H      0.893510    0.515884   -1.173354

 Multiplicity           Mult            ....    1
 Number of Electrons    NEL             ....   18
 Basis Dimension        Dim             ....   58

ORBITAL ENERGIES
----------------

  NO   OCC          E(Eh)            E(eV)
   0   2.0000      -9.888320      -269.0749
   1   2.0000      -9.888255      -269.0731
   2   2.0000      -0.675098       -18.3703
   3   2.0000      -0.545534       -14.8447
   4   2.0000      -0.378581       -10.3017
   5   2.0000      -0.378575       -10.3016
   6   2.0000      -0.322612        -8.7787
   7   2.0000      -0.292097        -7.9484
   8   2.0000      -0.292093        -7.9483
   9   0.0000       0.046389         1.2623
  10   0.0000       0.089528         2.4362
  11   0.0000       0.100491         2.7345
  12   0.0000       0.100498         2.7347
  13   0.0000       0.133569         3.6346

MULLIKEN ATOMIC CHARGES
-----------------------
   0 C :   -0.103535
   1 C :   -0.103535
   2 H :    0.034512
   3 H :    0.034511
   4 H :    0.034511
   5 H :    0.034512
   6 H :    0.034511
   7 H :    0.034511
Sum of atomic charges:   -0.0000000

LOEWDIN ATOMIC CHARGES
----------------------
   0 C :   -0.092037
   1 C :   -0.092037
   2 H :    0.030679
   3 H :    0.030679
   4 H :    0.030679
   5 H :    0.030679
   6 H :    0.030679
   7 H :    0.030679

  Mayer bond orders larger than 0.100000
B(  0-C ,  1-C ) :   1.1266 B(  0-C ,  2-H ) :   0.9718 B(  0-C ,  3-H ) :   0.9718
B(  0-C ,  4-H ) :   0.9718 B(  1-C ,  5-H ) :   0.9718 B(  1-C ,  6-H ) :   0.9718
B(  1-C ,  7-H ) :   0.9718

FINAL SINGLE POINT ENERGY       -79.699527170545

DIPOLE MOMENT
-------------
                                X             Y             Z
Electronic contribution:     -0.00000       0.00000       0.00000
Nuclear contribution   :     -0.00000      -0.00000      -0.00000
                        -----------------------------------------
Total Dipole Moment    :     -0.00000      -0.00000       0.00000
                        -----------------------------------------
Magnitude (a.u.)       :      0.00000
Magnitude (Debye)      :      0.00000

Rotational constants in cm-1:     2.618443     0.658688     0.658686
Rotational constants in MHz : 78498.959263 19746.964518 19746.919917

                             ****ORCA TERMINATED NORMALLY****
TOTAL RUN TIME: 0 days 0 hours 0 minutes 6 seconds 785 msec
