                         Program Version 5.0.0 -  RELEASE  -
|  1> ! pbe cc-pVDZ  OPT
|  2> %geom
|  3>     POTENTIALS
|  4>         { C 0 1 4.0 }
|  5>     end
|  6> end
|  7> *xyz 0 1
|  8> C   0.0 -6e-06 0.764702
|  9> C   -0.0 6e-06 -0.764702
| 10> H   0.0 1.031736 1.173314
| 11> H   -0.89351 -0.515884 1.173354
| 12> H   0.89351 -0.515884 1.173354
| 13> H   0.0 -1.031736 -1.173314
| 14> H   -0.89351 0.515884 -1.173354
| 15> H   0.89351 0.515884 -1.173354
| 16> *
| 17>
| 18>                          ****END OF INPUT****
 Total Charge           Charge          ....    0
 Multiplicity           Mult            ....    1
 Number of Electrons    NEL             ....   18
FINAL SINGLE POINT ENERGY       -79.699527171265
FINAL SINGLE POINT ENERGY       -79.697427393814
FINAL SINGLE POINT ENERGY       -79.694685613807
FINAL SINGLE POINT ENERGY       -79.692730847054
FINAL SINGLE POINT ENERGY       -79.692094489805
FINAL SINGLE POINT ENERGY       -79.692119978736
FINAL SINGLE POINT ENERGY       -79.692238398015
                    ***********************HURRAY********************

CARTESIAN COORDINATES (ANGSTROEM)
---------------------------------
  C      0.000000   -0.000015    0.834419
  C      0.000000    0.000015   -0.834419
  H     -0.000000    1.041266    1.210395
  H     -0.901770   -0.520649    1.210441
  H      0.901770   -0.520649    1.210441
  H     -0.000000   -1.041266   -1.210395
  H     -0.901770    0.520649   -1.210441
  H      0.901770    0.520649   -1.210441

 Multiplicity           Mult            ....    1
 Number of Electrons    NEL             ....   18
 Basis Dimension        Dim             ....   58

ORBITAL ENERGIES
----------------

  NO   OCC          E(Eh)            E(eV)
   0   2.0000      -9.895190      -269.2618
   1   2.0000      -9.895187      -269.2617
   2   2.0000      -0.654388       -17.8068
   3   2.0000      -0.551927       -15.0187
   4   2.0000      -0.371090       -10.0979
   5   2.0000      -0.371086       -10.0978
   6   2.0000      -0.303842        -8.2680
   7   2.0000      -0.303842        -8.2680
   8   2.0000      -0.298545        -8.1238
   9   0.0000       0.045666         1.2426
  10   0.0000       0.080838         2.1997
  11   0.0000       0.108247         2.9455
  12   0.0000       0.108253         2.9457
  13   0.0000       0.129743         3.5305

MULLIKEN ATOMIC CHARGES
-----------------------
   0 C :   -0.123775
   1 C :   -0.123775
   2 H :    0.041266
   3 H :    0.041254
   4 H :    0.041254
   5 H :    0.041266
   6 H :    0.041254
   7 H :    0.041254
Sum of atomic charges:   -0.0000000

LOEWDIN ATOMIC CHARGES
----------------------
   0 C :   -0.085709
   1 C :   -0.085709
   2 H :    0.028571
   3 H :    0.028569
   4 H :    0.028569
   5 H :    0.028571
   6 H :    0.028569
   7 H :    0.028569

  Mayer bond orders larger than 0.100000
B(  0-C ,  1-C ) :   1.0812 B(  0-C ,  2-H ) :   0.9780 B(  0-C ,  3-H ) :   0.9780
B(  0-C ,  4-H ) :   0.9780 B(  1-C ,  5-H ) :   0.9780 B(  1-C ,  6-H ) :   0.9780
B(  1-C ,  7-H ) :   0.9780

FINAL SINGLE POINT ENERGY       -79.692276936349

DIPOLE MOMENT
-------------
                                X             Y             Z
Electronic contribution:      0.00000       0.00000      -0.00000
Nuclear contribution   :     -0.00000       0.00000       0.00000
                        -----------------------------------------
Total Dipole Moment    :     -0.00000       0.00000      -0.00000
                        -----------------------------------------
Magnitude (a.u.)       :      0.00000
Magnitude (Debye)      :      0.00000

Rotational constants in cm-1:     2.570715     0.584010     0.584010
Rotational constants in MHz : 77068.088450 17508.175291 17508.165183

                             ****ORCA TERMINATED NORMALLY****
TOTAL RUN TIME: 0 days 0 hours 0 minutes 11 seconds 215 msec
