 Q-Chem 6.0 (devel), Q-Chem, Inc., Pleasanton, CA (2022)
 Q-Chem 6.0.0 for Intel X86 EM64T Linux

User input:
--------------------------------------------------------------
$comment
   ASE generated input file
$end

$rem
   DISTORT                     TRUE
   METHOD                      PBE
   BASIS                       CC-PVDZ
   JOBTYPE                     OPT
   DFT_D                       D3_BJ
   GEOM_OPT_MAX_CYCLES         150
   MAX_SCF_CYCLES              150
   SYM_IGNORE                  TRUE
$end

$molecule
   0 1
   C  1.160785  0.796575  -0.618416
   C  1.206406  0.601027  0.719659
   C  -0.295040  0.334877  -0.750815
   C  -0.242598  0.109224  0.811273
   C  -0.546991  -1.175026  -0.845247
   C  -0.502441  -1.367557  0.493258
   H  1.902681  1.108907  -1.368765
   H  1.999434  0.692776  1.476970
   H  -1.033519  1.025759  -1.202026
   H  -0.942022  0.639067  1.486764
   H  -0.656225  -1.848086  -1.708981
   H  -0.561559  -2.257573  1.137787
$end

$distort
   model                       xhcff
   pressure                    50000
   npoints_heavy               302
   npoints_hydrogen            302
   scaling                     1.0
$end

--------------------------------------------------------------

   14    -231.8379367956      4.37e-09  Convergence criterion met
 Total energy in the final basis set =     -231.8379367956
   11    -231.8296121022      2.40e-09  Convergence criterion met
 Total energy in the final basis set =     -231.8296121022
   11    -231.8233508453      2.45e-09  Convergence criterion met
 Total energy in the final basis set =     -231.8233508453
   10    -231.8240459123      2.18e-09  Convergence criterion met
 Total energy in the final basis set =     -231.8240459123
    9    -231.8241551890      7.85e-09  Convergence criterion met
 Total energy in the final basis set =     -231.8241551890
    8    -231.8240882318      7.87e-09  Convergence criterion met
 Total energy in the final basis set =     -231.8240882318
    8    -231.8240348963      3.86e-09  Convergence criterion met
 Total energy in the final basis set =     -231.8240348963
    8    -231.8240038250      5.41e-09  Convergence criterion met
 Total energy in the final basis set =     -231.8240038250
    8    -231.8240095268      7.13e-09  Convergence criterion met
 Total energy in the final basis set =     -231.8240095268
    8    -231.8240349569      5.74e-09  Convergence criterion met
 Total energy in the final basis set =     -231.8240349569
    6    -231.8240471094      6.47e-09  Convergence criterion met
 Total energy in the final basis set =     -231.8240471094

                    Orbital Energies (a.u.)
 --------------------------------------------------------------

 Alpha MOs
 -- Occupied --
 -9.8951  -9.8950  -9.8884  -9.8883  -9.8878  -9.8877  -0.8450  -0.7050
 -0.6005  -0.5583  -0.4975  -0.4658  -0.4435  -0.4319  -0.3808  -0.3369
 -0.3048  -0.2794  -0.2615  -0.2251  -0.2115

          Ground-State Mulliken Net Atomic Charges

     Atom                 Charge (a.u.)
  ----------------------------------------
      1 C                     0.045337
      2 C                     0.044584
      3 C                     0.011616
      4 C                     0.013065
      5 C                     0.044606
      6 C                     0.044848
      7 H                    -0.046767
      8 H                    -0.046965
      9 H                    -0.008357
     10 H                    -0.008325
     11 H                    -0.046754
     12 H                    -0.046886
  ----------------------------------------
  Sum of atomic charges =     0.000000

                    Cartesian Multipole Moments
 -----------------------------------------------------------------
    Charge (ESU x 10^10)
                 0.0000
    Dipole Moment (Debye)
         X      -0.0409      Y       0.0367      Z       0.0106
       Tot       0.0559
    Quadrupole Moments (Debye-Ang)
        XX     -35.5887     XY       0.0098     YY     -35.5204
        XZ       0.1000     YZ      -0.3877     ZZ     -32.9534

 Final energy is -231.824047109356
	**  OPTIMIZATION CONVERGED  **

             Standard Nuclear Orientation (Angstroms)
    I     Atom           X                Y                Z
 ----------------------------------------------------------------
    1      C       1.1204938903     0.7629965722    -0.6065352251
    2      C       1.1659951323     0.5701534424     0.7019291386
    3      C      -0.2841333056     0.3230308933    -0.7301142159
    4      C      -0.2328455548     0.1034083010     0.7866671075
    5      C      -0.5209090185    -1.1327437352    -0.8248802556
    6      C      -0.4777750565    -1.3214719089     0.4842895807
    7      H       1.8428206412     1.0597069721    -1.3390100548
    8      H       1.9385832589     0.6510213104     1.4384040189
    9      H      -1.0041593470     0.9955715060    -1.1640880117
   10      H      -0.9148684543     0.6222327053     1.4384165020
   11      H      -0.6179896232    -1.7873017298    -1.6663830290
   12      H      -0.5263015628    -2.1866343288     1.1127654443
 ----------------------------------------------------------------

 Total job time:  35.62s(wall), 139.43s(cpu)
        *  Thank you very much for using Q-Chem.  Have a nice day.  *
