 Q-Chem 6.0 (devel), Q-Chem, Inc., Pleasanton, CA (2022)
 Q-Chem 6.0.0 for Intel X86 EM64T Linux

User input:
--------------------------------------------------------------
$comment
   ASE generated input file
$end

$rem
   METHOD                      PBE
   BASIS                       CC-PVDZ
   JOBTYPE                     FREQ
   DFT_D                       D3_BJ
   VIBMAN_PRINT                7
   SYM_IGNORE                  TRUE
$end

$molecule
   0 1
   C  1.160785  0.796575  -0.618416
   C  1.206406  0.601027  0.719659
   C  -0.295040  0.334877  -0.750815
   C  -0.242598  0.109224  0.811273
   C  -0.546991  -1.175026  -0.845247
   C  -0.502441  -1.367557  0.493258
   H  1.902681  1.108907  -1.368765
   H  1.999434  0.692776  1.476970
   H  -1.033519  1.025759  -1.202026
   H  -0.942022  0.639067  1.486764
   H  -0.656225  -1.848086  -1.708981
   H  -0.561559  -2.257573  1.137787
$end

--------------------------------------------------------------

             Standard Nuclear Orientation (Angstroms)
    I     Atom           X                Y                Z
 ----------------------------------------------------------------
    1      C       1.1607850000     0.7965750000    -0.6184160000
    2      C       1.2064060000     0.6010270000     0.7196590000
    3      C      -0.2950400000     0.3348770000    -0.7508150000
    4      C      -0.2425980000     0.1092240000     0.8112730000
    5      C      -0.5469910000    -1.1750260000    -0.8452470000
    6      C      -0.5024410000    -1.3675570000     0.4932580000
    7      H       1.9026810000     1.1089070000    -1.3687650000
    8      H       1.9994340000     0.6927760000     1.4769700000
    9      H      -1.0335190000     1.0257590000    -1.2020260000
   10      H      -0.9420220000     0.6390670000     1.4867640000
   11      H      -0.6562250000    -1.8480860000    -1.7089810000
   12      H      -0.5615590000    -2.2575730000     1.1377870000
 ----------------------------------------------------------------

   14    -231.8379367955      4.37e-09  Convergence criterion met
 Total energy in the final basis set =     -231.8379367955

                    Orbital Energies (a.u.)
 --------------------------------------------------------------

 Alpha MOs
 -- Occupied --
 -9.9098  -9.9097  -9.9011  -9.9010  -9.9006  -9.9006  -0.8158  -0.6917
 -0.5877  -0.5537  -0.4931  -0.4519  -0.4328  -0.4311  -0.3684  -0.3322
 -0.2994  -0.2753  -0.2633  -0.2235  -0.2120

          Ground-State Mulliken Net Atomic Charges

     Atom                 Charge (a.u.)
  ----------------------------------------
      1 C                     0.027112
      2 C                     0.026940
      3 C                    -0.018376
      4 C                    -0.017825
      5 C                     0.026561
      6 C                     0.026989
      7 H                    -0.022821
      8 H                    -0.022899
      9 H                     0.009995
     10 H                     0.009936
     11 H                    -0.022763
     12 H                    -0.022848
  ----------------------------------------
  Sum of atomic charges =     0.000000

                    Cartesian Multipole Moments
 -----------------------------------------------------------------
    Charge (ESU x 10^10)
                -0.0000
    Dipole Moment (Debye)
         X      -0.0111      Y       0.0103      Z       0.0039
       Tot       0.0156
    Quadrupole Moments (Debye-Ang)
        XX     -35.7648     XY       0.2427     YY     -35.6300
        XZ       0.1290     YZ      -0.3841     ZZ     -33.1092

 Frequency:       326.51                 377.30                 469.17
 Force Cnst:      0.1692                 0.2048                 0.3040
 Red. Mass:       2.6935                 2.4413                 2.3439
 IR Intens:        0.000                  3.610                  4.801
 Frequency:       688.35                 766.43                 785.76
 Force Cnst:      0.3247                 1.7517                 0.5584
 Red. Mass:       1.1633                 5.0614                 1.5349
 IR Intens:       38.185                  0.010                 65.264
 Frequency:       800.59                 850.81                 886.80
 Force Cnst:      0.5949                 0.6133                 0.6270
 Red. Mass:       1.5753                 1.4381                 1.3533
 IR Intens:       11.076                  0.005                  0.005
 Frequency:       897.93                 923.70                 927.99
 Force Cnst:      2.4386                 0.9094                 1.1069
 Red. Mass:       5.1335                 1.8089                 2.1815
 IR Intens:        5.824                  4.153                  0.767
 Frequency:       930.62                 969.74                 982.07
 Force Cnst:      1.2778                 0.7746                 0.7035
 Red. Mass:       2.5042                 1.3980                 1.2379
 IR Intens:        1.205                  0.014                  1.983
 Frequency:      1056.32                1102.35                1130.71
 Force Cnst:      0.9461                 1.0678                 1.0348
 Red. Mass:       1.4392                 1.4914                 1.3737
 IR Intens:        0.061                  3.638                  0.024
 Frequency:      1142.19                1143.96                1235.43
 Force Cnst:      1.7457                 1.4046                 1.8928
 Red. Mass:       2.2711                 1.8217                 2.1049
 IR Intens:        4.765                  0.592                  0.218
 Frequency:      1242.34                1564.63                1591.60
 Force Cnst:      1.6220                 8.2034                 9.2882
 Red. Mass:       1.7837                 5.6875                 6.2232
 IR Intens:       34.852                 10.821                  0.053
 Frequency:      3030.43                3037.29                3106.81
 Force Cnst:      5.8754                 5.9142                 6.1615
 Red. Mass:       1.0859                 1.0881                 1.0834
 IR Intens:       14.698                 30.112                  9.120
 Frequency:      3111.53                3139.69                3145.38
 Force Cnst:      6.1830                 6.4844                 6.5045
 Red. Mass:       1.0839                 1.1165                 1.1159
 IR Intens:       18.468                 38.811                 14.967

 STANDARD THERMODYNAMIC QUANTITIES AT   298.15 K  AND     1.00 ATM

   This Molecule has  0 Imaginary Frequencies
   Zero point vibrational energy:       59.133 kcal/mol

   Atom    1 Element C  Has Mass   12.00000
   Atom    2 Element C  Has Mass   12.00000
   Atom    3 Element C  Has Mass   12.00000
   Atom    4 Element C  Has Mass   12.00000
   Atom    5 Element C  Has Mass   12.00000
   Atom    6 Element C  Has Mass   12.00000
   Atom    7 Element H  Has Mass    1.00783
   Atom    8 Element H  Has Mass    1.00783
   Atom    9 Element H  Has Mass    1.00783
   Atom   10 Element H  Has Mass    1.00783
   Atom   11 Element H  Has Mass    1.00783
   Atom   12 Element H  Has Mass    1.00783
   Molecular Mass:    78.046980 amu
   Principal axes and moments of inertia in amu*Bohr^2:
                             1           2           3
    Eigenvalues --      233.73419   407.73587   523.96178
          X               0.65261     0.03416     0.75693
          Y               0.75278    -0.14287    -0.64258
          Z               0.08619     0.98915    -0.11895
   Rotational Symmetry Number is   1
   The Molecule is an Asymmetric Top
   Translational Enthalpy:        0.889 kcal/mol
   Rotational Enthalpy:           0.889 kcal/mol
   Vibrational Enthalpy:         60.321 kcal/mol
   gas constant (RT):             0.592 kcal/mol
   Translational Entropy:        38.979  cal/mol.K
   Rotational Entropy:           25.415  cal/mol.K
   Vibrational Entropy:           5.472  cal/mol.K

   Total Enthalpy:               62.691 kcal/mol
   Total Entropy:                69.867  cal/mol.K
 Total job time:  33.28s(wall), 131.92s(cpu)
        *  Thank you very much for using Q-Chem.  Have a nice day.  *
