 Q-Chem 6.0 (devel), Q-Chem, Inc., Pleasanton, CA (2022)
 Q-Chem 6.0.0 for Intel X86 EM64T Linux

User input:
--------------------------------------------------------------
$comment
   ASE generated input file
$end

$rem
   METHOD                      PBE
   BASIS                       CC-PVDZ
   JOBTYPE                     OPT
   DFT_D                       D3_BJ
   GEOM_OPT_MAX_CYCLES         150
   USE_LIBQINTS                1
   MAX_SCF_CYCLES              150
   SYM_IGNORE                  TRUE
$end

$molecule
   0 1
   C  1.156670  0.757850  -0.590700
   C  1.199560  0.574010  0.682800
   C  -0.251930  0.302400  -0.795810
   C  -0.196730  0.065770  0.843250
   C  -0.513650  -1.168950  -0.812630
   C  -0.470760  -1.352810  0.460860
   H  1.905290  1.163890  -1.262280
   H  1.994620  0.780840  1.390940
   H  -1.029510  1.016540  -1.143260
   H  -0.942920  0.645190  1.428760
   H  -0.725540  -1.870860  -1.611840
   H  -0.636190  -2.253900  1.041370
$end

--------------------------------------------------------------

   14    -231.8187849367      1.43e-09  Convergence criterion met
 Total energy in the final basis set =     -231.8187849367
   11    -231.8328753327      6.15e-09  Convergence criterion met
 Total energy in the final basis set =     -231.8328753327
   11    -231.8351315458      1.85e-09  Convergence criterion met
 Total energy in the final basis set =     -231.8351315458
   11    -231.8372337045      2.18e-09  Convergence criterion met
 Total energy in the final basis set =     -231.8372337045
   10    -231.8375936124      5.97e-09  Convergence criterion met
 Total energy in the final basis set =     -231.8375936124
   10    -231.8378581634      2.33e-09  Convergence criterion met
 Total energy in the final basis set =     -231.8378581634
   10    -231.8378986297      2.22e-09  Convergence criterion met
 Total energy in the final basis set =     -231.8378986297
   10    -231.8379200538      2.92e-09  Convergence criterion met
 Total energy in the final basis set =     -231.8379200538
    9    -231.8379273553      8.21e-09  Convergence criterion met
 Total energy in the final basis set =     -231.8379273553
    9    -231.8379314565      5.86e-09  Convergence criterion met
 Total energy in the final basis set =     -231.8379314565
    9    -231.8379343506      3.07e-09  Convergence criterion met
 Total energy in the final basis set =     -231.8379343506
    8    -231.8379361639      6.96e-09  Convergence criterion met
 Total energy in the final basis set =     -231.8379361639
    8    -231.8379367958      7.78e-09  Convergence criterion met
 Total energy in the final basis set =     -231.8379367958

                    Orbital Energies (a.u.)
 --------------------------------------------------------------

 Alpha MOs
 -- Occupied --
 -9.9098  -9.9097  -9.9011  -9.9010  -9.9006  -9.9006  -0.8158  -0.6917
 -0.5877  -0.5537  -0.4931  -0.4519  -0.4328  -0.4311  -0.3684  -0.3322
 -0.2994  -0.2753  -0.2633  -0.2235  -0.2120

          Ground-State Mulliken Net Atomic Charges

     Atom                 Charge (a.u.)
  ----------------------------------------
      1 C                     0.027112
      2 C                     0.026939
      3 C                    -0.018376
      4 C                    -0.017826
      5 C                     0.026561
      6 C                     0.026989
      7 H                    -0.022821
      8 H                    -0.022899
      9 H                     0.009995
     10 H                     0.009936
     11 H                    -0.022763
     12 H                    -0.022847
  ----------------------------------------
  Sum of atomic charges =     0.000000

                    Cartesian Multipole Moments
 -----------------------------------------------------------------
    Charge (ESU x 10^10)
                -0.0000
    Dipole Moment (Debye)
         X      -0.0111      Y       0.0103      Z       0.0039
       Tot       0.0156
    Quadrupole Moments (Debye-Ang)
        XX     -35.7648     XY       0.2427     YY     -35.6300
        XZ       0.1290     YZ      -0.3841     ZZ     -33.1092

 Final energy is -231.837936795837
	**  OPTIMIZATION CONVERGED  **

             Standard Nuclear Orientation (Angstroms)
    I     Atom           X                Y                Z
 ----------------------------------------------------------------
    1      C       1.1607845843     0.7965746411    -0.6184163721
    2      C       1.2064061407     0.6010268789     0.7196586820
    3      C      -0.2950398540     0.3348771544    -0.7508152691
    4      C      -0.2425980464     0.1092239494     0.8112728579
    5      C      -0.5469912498    -1.1750260931    -0.8452469806
    6      C      -0.5024408446    -1.3675565679     0.4932580575
    7      H       1.9026811941     1.1089073130    -1.3687652634
    8      H       1.9994341000     0.6927756437     1.4769703050
    9      H      -1.0335194698     1.0257590351    -1.2020259133
   10      H      -0.9420221340     0.6390669794     1.4867643156
   11      H      -0.6562253895    -1.8480855599    -1.7089814476
   12      H      -0.5615590310    -2.2575733741     1.1377870281
 ----------------------------------------------------------------

 Total job time:  56.97s(wall), 226.49s(cpu)
        *  Thank you very much for using Q-Chem.  Have a nice day.  *
